ITEM: TIMESTEP
0
ITEM: NUMBER OF ATOMS
500
ITEM: BOX BOUNDS pp pp pp
0.0000000000000000e+00 2.0300000000000001e+01
0.0000000000000000e+00 2.0300000000000001e+01
0.0000000000000000e+00 2.0300000000000001e+01
ITEM: ATOMS id type x y z c_keAtom v_T_atom
1 1 0.0928786 20.2233 0.207319 0.0312798 241.991
2 1 2.11573 1.7374 20.299 0.190494 1473.72
3 1 0.168769 2.14569 1.97579 0.152239 1177.77
4 1 2.34114 0.124559 2.12644 0.216187 1672.5
5 1 4.32529 0.305639 0.249854 0.10078 779.665
6 1 6.45165 1.9988 20.1746 0.252284 1951.76
7 1 4.15943 2.27301 2.12653 0.0542957 420.051
8 1 6.0222 0.235343 2.08176 0.0684036 529.194
9 1 7.90097 20.2342 20.2011 0.295251 2284.17
10 1 10.1673 1.99616 20.2218 0.167647 1296.98
11 1 8.10332 2.39939 2.05951 0.168425 1302.99
12 1 9.8348 20.007 1.8802 0.147826 1143.63
13 1 12.0044 20.0524 20.1449 0.121129 937.095
14 1 14.0346 1.76002 0.0973659 0.14193 1098.02
15 1 11.9409 1.68976 2.1257 0.110485 854.754
16 1 14.5649 19.9619 2.05408 0.0586087 453.417
17 1 16.392 20.0534 20.2479 0.196552 1520.6
18 1 18.1276 2.25788 20.1332 0.161592 1250.13
19 1 16.4137 1.89264 2.07146 0.125887 973.908
20 1 18.5466 0.269781 1.8404 0.0606214 468.988
21 1 20.0827 3.78199 20.2413 0.172398 1333.73
22 1 1.9388 5.97469 0.0103213 0.0104669 80.9755
23 1 0.0269259 5.89394 1.84549 0.115112 890.545
24 1 2.12411 4.11802 2.07445 0.0192951 149.274
25 1 4.3517 3.98955 20.2304 0.336377 2602.33
26 1 6.07239 6.2378 0.030634 0.0286998 222.032
27 1 3.89387 6.03079 2.05874 0.101674 786.583
28 1 5.94503 4.13217 1.73175 0.0157505 121.851
29 1 8.18737 4.06533 20.2973 0.0419708 324.701
30 1 10.0046 6.24827 0.269684 0.226219 1750.11
31 1 7.8669 6.12188 2.08313 0.235849 1824.61
32 1 10.3312 4.01951 2.08294 0.10965 848.293
33 1 11.9588 3.96856 20.1681 0.214494 1659.4
34 1 14.1826 6.02869 0.0585343 0.0787098 608.926
35 1 12.1984 6.18817 2.17966 0.127058 982.967
36 1 13.7682 3.77655 1.63452 0.309277 2392.67
37 1 15.8744 3.80028 0.291277 0.029157 225.569
38 1 18.2639 6.0361 20.1622 0.258886 2002.83
39 1 16.2576 5.99023 2.1577 0.0227604 176.082
40 1 18.2327 3.91138 1.88375 0.0207906 160.843
41 1 20.0185 8.21258 0.235908 0.198782 1537.85
42 1 1.71704 10.3313 0.0597462 0.106258 822.046
43 1 20.0978 10.6675 1.79943 0.0228401 176.699
44 1 1.89937 7.94472 2.17531 0.213155 1649.04
45 1 3.89409 7.88879 20.2979 0.0301743 233.439
46 1 5.97076 9.88581 20.056 0.127234 984.328
47 1 4.21183 9.93552 1.8882 0.198023 1531.98
48 1 6.26644 8.05649 1.91277 0.185278 1433.37
49 1 8.05835 8.14479 20.2465 0.303226 2345.86
50 1 10.0849 9.87685 0.0737394 0.248478 1922.31
51 1 8.04324 10.3903 2.09143 0.0591655 457.725
52 1 10.2047 8.47008 2.2159 0.145073 1122.34
53 1 12.6163 8.11652 0.104399 0.0902684 698.347
54 1 14.5939 10.3339 0.363712 0.34869 2697.59
55 1 12.2998 9.89643 2.08628 0.0970611 750.898
56 1 14.3533 8.12341 2.14819 0.025262 195.435
57 1 16.0007 7.99324 0.216776 0.183096 1416.49
58 1 18.2441 10.5192 19.9973 0.363465 2811.89
59 1 16.3157 10.4851 2.15952 0.29485 2281.06
60 1 18.1052 8.4009 2.03142 0.189971 1469.68
61 1 20.1598 12.5168 20.2916 0.092732 717.407
62 1 2.11836 14.4719 20.1762 0.318697 2465.55
63 1 0.0736777 14.3233 2.08536 0.154368 1194.24
64 1 2.10681 12.4017 1.93767 0.176246 1363.5
65 1 4.07902 11.9615 20.0899 0.173739 1344.11
66 1 6.26203 14.0206 20.183 0.0105497 81.6163
67 1 4.13325 14.1707 2.02019 0.0431877 334.115
68 1 6.3897 12.3239 2.27041 0.363595 2812.89
69 1 8.17687 11.9024 20.1925 0.322699 2496.51
70 1 9.98866 14.1902 0.38964 0.311836 2412.47
71 1 8.11926 14.2046 1.96576 0.0899441 695.838
72 1 10.2757 11.9822 2.28194 0.195627 1513.44
73 1 12.0505 12.1853 0.295659 0.271245 2098.44
74 1 14.1375 13.8341 0.106488 0.0855561 661.891
75 1 12.065 14.5961 1.98527 0.12512 967.974
76 1 14.2501 12.0801 2.36953 0.0660742 511.173
77 1 16.4286 12.1703 20.1293 0.198602 1536.46
78 1 18.2774 14.493 0.333571 0.164683 1274.04
79 1 15.8763 14.3763 2.03096 0.340415 2633.57
80 1 18.0487 12.6197 2.11627 0.0335221 259.338
81 1 0.049484 16.0046 0.352765 0.0801533 620.094
82 1 2.07752 18.2415 19.92 0.0177305 137.17
83 1 0.0874475 18.2844 2.10967 0.0167233 129.378
84 1 2.45895 16.3269 1.83222 0.198119 1532.72
85 1 4.14891 15.9614 20.1535 0.0688563 532.696
86 1 6.0922 18.1721 19.8489 0.0708827 548.373
87 1 4.15514 18.3492 2.11649 0.191006 1477.69
88 1 5.76822 15.9957 2.26741 0.179883 1391.64
89 1 7.7141 15.9965 20.0319 0.0740408 572.805
90 1 9.86699 18.2998 20.151 0.125505 970.954
91 1 7.53275 18.3523 1.79471 0.100059 774.087
92 1 9.92106 16.2518 1.6913 0.131759 1019.34
93 1 12.1989 16.6375 19.806 0.112316 868.917
94 1 14.1112 18.4758 20.0325 0.189184 1463.6
95 1 12.2524 18.2735 1.82597 0.0656091 507.574
96 1 14.0266 16.3267 1.46262 0.159395 1233.13
97 1 16.0116 16.4087 19.946 0.342261 2647.85
98 1 18.3914 18.2379 20.2004 0.373729 2891.3
99 1 16.761 18.2695 2.14361 0.0308581 238.729
100 1 18.4702 16.459 2.11549 0.217031 1679.02
101 1 0.123679 20.2199 4.23311 0.161132 1246.57
102 1 1.77557 1.98963 4.12227 0.0748482 579.052
103 1 20.1314 2.19691 6.28211 0.0477246 369.214
104 1 2.16279 20.249 6.06457 0.0650501 503.25
105 1 4.2242 20.2465 3.91261 0.190092 1470.62
106 1 6.29152 2.20985 4.27355 0.200614 1552.02
107 1 3.87146 2.31295 5.71828 0.0580041 448.74
108 1 6.02072 19.8266 5.83395 0.0271423 209.982
109 1 8.07031 20.198 3.79441 0.139678 1080.6
110 1 9.98951 1.98059 3.83199 0.0684516 529.566
111 1 8.2332 1.76093 5.81237 0.165602 1281.15
112 1 10.0379 20.1945 5.94536 0.113868 880.919
113 1 12.2142 20.1382 3.62935 0.0794678 614.79
114 1 14.1673 1.92768 4.02142 0.0749216 579.619
115 1 12.1326 1.85091 6.15321 0.129023 998.167
116 1 14.0636 20.1501 6.2629 0.146523 1133.55
117 1 16.3401 20.2705 4.0353 0.176774 1367.59
118 1 18.3815 2.06886 4.00715 0.192678 1490.63
119 1 15.8159 1.76499 6.03703 0.133801 1035.13
120 1 18.3581 20.1597 6.035 0.30645 2370.8
121 1 20.1018 3.97678 3.81458 0.0525721 406.716
122 1 2.12904 6.06391 4.28611 0.0906437 701.251
123 1 19.9715 5.6437 5.89369 0.152974 1183.46
124 1 1.80987 4.12098 6.18177 0.554544 4290.14
125 1 4.21321 4.21713 4.14409 0.185591 1435.8
126 1 6.1157 6.16094 4.0069 0.0973802 753.367
127 1 4.07245 6.08983 5.94482 0.107414 830.995
128 1 5.97552 4.00893 6.11687 0.0686773 531.311
129 1 7.9115 4.39988 4.31564 0.23742 1836.77
130 1 9.9815 5.96963 4.2298 0.0520075 402.348
131 1 7.8652 6.32916 6.20606 0.0595498 460.698
132 1 10.0487 3.81439 6.04747 0.152604 1180.6
133 1 12.4934 4.20205 3.9443 0.69897 5407.47
134 1 14.1672 6.28519 4.15779 0.321511 2487.32
135 1 12.0073 6.07332 6.27827 0.0656017 507.517
136 1 14.26 3.9773 6.03889 0.141965 1098.29
137 1 16.027 4.13281 3.86961 0.0627726 485.63
138 1 18.3784 6.17498 3.78614 0.217569 1683.19
139 1 16.3534 6.01517 5.93618 0.131938 1020.72
140 1 17.9305 4.04136 6.1333 0.0516353 399.469
141 1 20.1648 8.25699 3.70602 0.0293085 226.741
142 1 2.14849 10.3067 3.4866 0.103735 802.53
143 1 19.9195 10.4785 6.05876 0.345087 2669.71
144 1 2.10224 8.49534 5.84839 0.488875 3782.11
145 1 4.3478 8.45448 4.15516 0.186865 1445.65
146 1 6.15804 10.4601 4.14984 0.126146 975.909
147 1 3.92446 10.1375 6.2731 0.407886 3155.55
148 1 5.94435 8.50289 6.22468 0.436761 3378.93
149 1 8.0666 8.44759 3.98195 0.0945806 731.708
150 1 10.2839 10.2289 4.41082 0.059147 457.581
151 1 8.07193 10.362 6.305 0.0787452 609.2
152 1 10.0912 8.03355 6.18445 0.00757981 58.64
153 1 12.2202 8.00569 4.1643 0.066716 516.138
154 1 14.188 9.92621 3.93527 0.0680704 526.616
155 1 12.2197 10.268 6.00509 0.225803 1746.89
156 1 14.5438 8.13574 6.36544 0.431965 3341.83
157 1 16.2994 8.12745 4.22876 0.467868 3619.59
158 1 18.0974 10.1237 4.10111 0.210791 1630.75
159 1 16.4234 10.4364 6.02455 0.09169 709.345
160 1 18.2416 8.27474 6.11584 0.112722 872.055
161 1 19.9588 12.0226 3.7549 0.0981503 759.325
162 1 2.1287 14.3551 4.05976 0.188728 1460.06
163 1 0.0559012 14.225 5.81988 0.0723495 559.721
164 1 1.94237 12.3069 6.10222 0.0728114 563.294
165 1 4.22499 11.9623 4.04313 0.0607832 470.24
166 1 6.07599 14.3241 4.05351 0.262025 2027.12
167 1 4.12147 14.1702 6.14051 0.176721 1367.17
168 1 5.8915 12.2991 5.97716 0.0125441 97.0454
169 1 8.3641 12.4019 4.17574 0.102621 793.915
170 1 10.1298 14.3566 3.95923 0.12738 985.457
171 1 8.33402 14.0739 6.26779 0.269214 2082.73
172 1 9.90195 12.1812 6.26 0.153009 1183.73
173 1 11.9336 12.2582 4.09666 0.145356 1124.52
174 1 14.1224 14.1448 4.24324 0.0582763 450.845
175 1 12.0915 13.8752 6.00829 0.0831044 642.924
176 1 14.4705 12.221 6.0742 0.0336996 260.712
177 1 16.1653 12.6447 3.94066 0.02345 181.417
178 1 18.3733 14.7073 4.17057 0.090385 699.249
179 1 16.2567 14.4927 6.1039 0.0501716 388.145
180 1 18.1518 12.4876 5.84754 0.268616 2078.1
181 1 0.124602 16.3319 4.05002 0.106592 824.635
182 1 2.11954 18.4001 3.85286 0.161511 1249.51
183 1 20.2619 18.0188 6.5193 0.223004 1725.23
184 1 2.07203 16.429 6.51952 0.0391185 302.634
185 1 3.88517 16.2982 4.06726 0.0536617 415.146
186 1 6.0596 17.8868 4.12098 0.262892 2033.83
187 1 3.83725 18.3303 6.04364 0.189478 1465.87
188 1 6.26608 16.267 6.38601 0.154947 1198.72
189 1 8.14063 16.0406 4.14772 0.0739979 572.473
190 1 10.0245 18.2195 3.82664 0.0402784 311.608
191 1 7.95718 18.2575 6.17592 0.635796 4918.74
192 1 10.0163 16.1427 5.85568 0.143626 1111.14
193 1 12.2024 16.3829 3.87915 0.184525 1427.55
194 1 14.2851 18.3758 4.12178 0.0717419 555.02
195 1 11.9402 18.1607 6.10896 0.201642 1559.97
196 1 14.139 15.9946 6.24276 0.0147248 113.916
197 1 15.7685 16.4419 3.96279 0.332566 2572.84
198 1 18.5859 18.3573 4.21924 0.227507 1760.07
199 1 15.9795 18.2507 6.25505 0.199507 1543.46
200 1 18.0596 16.3278 6.33881 0.191648 1482.66
201 1 20.1688 20.2471 7.95553 0.0545219 421.8
202 1 1.86763 1.82128 8.09384 0.0875667 677.446
203 1 20.1395 2.16692 9.88095 0.143221 1108
204 1 2.0958 0.284904 10.3787 0.0400733 310.021
205 1 4.24974 20.2379 8.48247 0.10314 797.923
206 1 5.92573 1.89307 7.83802 0.143505 1110.2
207 1 3.89154 2.18895 10.3697 0.0800479 619.278
208 1 6.2002 0.157207 10.0946 0.118487 916.659
209 1 8.19367 0.123491 7.88087 0.118082 913.522
210 1 10.6337 2.01119 8.29449 0.0297916 230.478
211 1 8.26399 2.38234 10.1784 0.32192 2490.48
212 1 10.0994 0.0979613 10.2015 0.354216 2740.33
213 1 12.1652 19.8239 8.34542 0.137648 1064.89
214 1 13.8956 2.1062 8.2772 0.0451755 349.493
215 1 12.2131 2.06708 10.5865 0.0346489 268.056
216 1 14.2666 20.1955 9.95209 0.0913823 706.965
217 1 16.0562 0.129164 8.20966 0.0897631 694.438
218 1 17.8823 2.05599 7.90222 0.0922974 714.045
219 1 15.8965 2.12635 10.1415 0.479482 3709.44
220 1 18.0677 0.486827 10.1832 0.171266 1324.97
221 1 0.344683 4.26933 8.31423 0.301691 2333.98
222 1 1.56754 6.59152 7.60673 0.518477 4011.12
223 1 20.1842 6.26295 9.87375 0.0585198 452.729
224 1 2.20059 4.04461 10.3948 0.111497 862.58
225 1 4.02558 3.79746 8.16062 0.0389407 301.258
226 1 5.76523 6.01109 8.29678 0.104531 808.688
227 1 3.82348 6.03483 10.0052 0.178026 1377.27
228 1 6.03878 4.23941 10.1602 0.00644184 49.8363
229 1 8.24348 3.74325 7.87084 0.71106 5501.01
230 1 9.95417 5.94421 7.96151 0.0599806 464.031
231 1 7.93557 5.91587 10.2324 0.138906 1074.63
232 1 10.066 4.15801 10.0353 0.0747859 578.57
233 1 12.0932 4.06952 8.11603 0.00747358 57.8182
234 1 13.9385 6.11784 7.93119 0.366153 2832.69
235 1 12.1908 6.09707 10.0291 0.298735 2311.11
236 1 14.0022 4.18889 10.3501 0.175656 1358.94
237 1 15.9689 4.32441 8.37463 0.171911 1329.96
238 1 18.238 6.26574 7.98006 0.0251678 194.707
239 1 16.352 6.06419 10.2583 0.131476 1017.14
240 1 18.1523 3.90878 10.2833 0.0498854 385.931
241 1 20.2976 8.53064 7.99723 0.100004 773.669
242 1 1.83825 10.5074 8.17072 0.129904 1004.98
243 1 20.1997 10.1912 10.1612 0.275142 2128.59
244 1 1.84124 8.37933 10.1469 0.129279 1000.14
245 1 3.86814 8.1035 8.11346 0.29803 2305.66
246 1 6.18741 10.1397 8.4039 0.236708 1831.25
247 1 3.96442 9.89578 10.1818 0.15118 1169.58
248 1 5.80173 7.9806 10.0653 0.0981388 759.236
249 1 7.82989 7.88924 8.2984 0.0742127 574.135
250 1 10.1976 9.89219 8.08206 0.371386 2873.17
251 1 8.32998 10.0107 10.159 0.0955765 739.413
252 1 10.0663 7.85966 10.0423 0.408944 3163.73
253 1 12.4259 8.22302 8.06301 0.0118493 91.6699
254 1 14.3571 9.82023 8.12843 0.414839 3209.34
255 1 12.366 10.1357 10.4239 0.293218 2268.44
256 1 14.3081 7.82756 10.1728 0.272609 2109
257 1 16.1791 8.02564 8.54524 0.189219 1463.86
258 1 17.8603 10.1706 7.8925 0.0319829 247.431
259 1 16.4926 10.0361 10.2216 0.00948572 73.3848
260 1 18.0521 7.96019 9.90777 0.270716 2094.35
261 1 19.7841 12.4736 7.8403 0.244844 1894.2
262 1 1.76408 14.2609 8.27391 0.0102334 79.1689
263 1 20.1884 14.2286 10.1202 0.0360209 278.67
264 1 1.8779 12.1998 10.337 0.0791779 612.548
265 1 3.91247 12.2298 8.00492 0.502051 3884.04
266 1 6.0835 13.9731 8.11679 0.0534542 413.54
267 1 4.23849 14.1622 10.1096 0.168858 1306.35
268 1 6.26541 12.2671 9.95464 0.126924 981.926
269 1 8.09548 12.3068 8.22041 0.396269 3065.68
270 1 10.2749 14.0364 8.25656 0.0859413 664.871
271 1 7.90661 14.4079 10.0124 0.120392 931.395
272 1 10.1186 12.1584 10.2704 0.1378 1066.07
273 1 12.1271 11.9728 8.19374 0.0731627 566.012
274 1 14.2226 13.9937 8.20227 0.188733 1460.1
275 1 12.4688 14.1146 10.0642 0.154228 1193.16
276 1 14.1585 12.1049 10.1088 0.0388611 300.643
277 1 16.4257 12.0447 8.67447 0.00794797 61.4882
278 1 18.1784 14.4487 8.20611 0.106453 823.56
279 1 16.0579 14.1469 10.4893 0.126187 976.228
280 1 18.5405 12.2058 10.3224 0.214962 1663.02
281 1 20.0658 16.3456 8.49753 0.214897 1662.52
282 1 2.12321 18.8494 8.28404 0.14875 1150.78
283 1 20.1745 18.7575 9.92272 0.265465 2053.73
284 1 2.16185 16.1169 10.0959 0.207846 1607.97
285 1 4.24895 16.2004 8.4443 0.0615761 476.374
286 1 5.96234 18.3284 8.38009 0.0938539 726.086
287 1 4.09766 18.1779 10.3125 0.0971453 751.549
288 1 5.97042 16.3377 10.3245 0.146404 1132.63
289 1 8.27976 16.0023 8.34527 0.130099 1006.49
290 1 10.0281 18.1004 8.10009 0.0552585 427.499
291 1 8.12376 18.3048 10.2263 0.0775757 600.152
292 1 10.2807 15.974 9.91805 0.00948903 73.4104
293 1 12.3378 16.1389 8.06889 0.214924 1662.73
294 1 14.5224 17.9517 8.21832 0.121576 940.557
295 1 12.0441 18.1253 10.3568 0.0370103 286.324
296 1 14.2181 16.2287 10.3924 0.0325363 251.712
297 1 15.9086 15.773 8.56069 0.259653 2008.76
298 1 17.7835 18.0922 8.21034 0.0938438 726.008
299 1 15.9769 18.3479 10.491 0.146696 1134.89
300 1 18.1312 16.3074 10.4506 0.183439 1419.15
301 1 0.15178 0.539915 12.0163 0.199774 1545.52
302 1 2.08379 2.26198 12.4195 0.171825 1329.3
303 1 0.265659 2.31393 14.1162 0.56147 4343.72
304 1 2.13305 0.20982 14.008 0.129247 999.901
305 1 4.21562 0.0932883 11.8931 0.162596 1257.9
306 1 6.11877 2.23076 11.7578 0.213874 1654.61
307 1 4.36574 1.78098 14.1398 0.0892507 690.474
308 1 6.33619 0.156464 14.1481 0.210383 1627.59
309 1 8.25854 20.1236 12.0405 0.0517537 400.385
310 1 10.0421 2.03923 12.217 0.053967 417.507
311 1 8.28619 2.30414 14.1885 0.0706983 546.946
312 1 10.4159 20.1755 14.1079 0.0385924 298.564
313 1 12.1363 20.2697 12.3199 0.0158289 122.458
314 1 14.0993 2.07854 12.1906 0.240206 1858.32
315 1 11.993 2.21062 14.1123 0.376899 2915.82
316 1 14.4303 0.129709 14.0017 0.170369 1318.03
317 1 16.2762 20.2944 11.9743 0.234843 1816.83
318 1 18.3369 2.14235 12.4454 0.162593 1257.87
319 1 16.3083 1.7697 14.1092 0.0982043 759.743
320 1 18.4411 20.281 13.9002 0.0894059 691.675
321 1 0.0190012 4.15094 11.9511 0.164768 1274.7
322 1 2.26053 6.01042 12.0743 0.210906 1631.64
323 1 20.2882 5.99255 14.515 0.138524 1071.67
324 1 2.15593 4.25925 14.1647 0.0974159 753.643
325 1 4.42586 4.25558 12.2591 0.115489 893.466
326 1 5.65845 6.60312 12.2862 0.106144 821.164
327 1 4.35852 5.82336 14.3069 0.182862 1414.69
328 1 6.36877 3.80967 14.0495 0.142685 1103.86
329 1 8.1963 4.42817 12.1861 0.113944 881.507
330 1 10.1614 6.12179 12.1247 0.0771371 596.759
331 1 7.81103 6.12169 14.2793 0.0861055 666.142
332 1 10.1558 4.37889 14.1977 0.292631 2263.89
333 1 12.0495 4.27941 12.453 0.0550696 426.037
334 1 14.5779 6.24914 12.1742 0.0230697 178.475
335 1 12.1775 6.22145 13.9289 0.0455743 352.579
336 1 14.172 4.27835 14.0823 0.338932 2622.1
337 1 15.9457 3.83145 12.1459 0.0399326 308.933
338 1 18.6723 6.0755 11.9666 0.06863 530.945
339 1 16.1106 5.97124 14.7948 0.0343203 265.514
340 1 18.1095 4.09749 13.9259 0.248234 1920.42
341 1 0.514929 7.93217 12.5833 0.146359 1132.29
342 1 1.52449 10.0189 12.297 0.338042 2615.21
343 1 20.2234 9.85833 14.2653 0.0760264 588.166
344 1 2.4677 7.97265 14.5403 0.372016 2878.05
345 1 3.87765 8.52245 12.1654 0.111116 859.629
346 1 5.97205 10.0934 12.1605 0.298752 2311.25
347 1 4.13934 10.0483 14.0857 0.0290342 224.618
348 1 5.80148 8.1747 14.1562 0.158877 1229.13
349 1 7.67112 8.12165 12.0122 0.0485765 375.805
350 1 10.0592 10.4842 12.0753 0.0856966 662.979
351 1 8.53365 10.2034 14.2371 0.200416 1550.49
352 1 9.88586 7.84612 14.1447 0.0633976 490.466
353 1 12.0699 8.30269 12.0584 0.0271366 209.938
354 1 13.9777 9.90704 12.2667 0.118211 914.522
355 1 11.9871 9.9401 14.242 0.889794 6883.76
356 1 14.0821 8.03466 14.3274 0.28698 2220.17
357 1 16.3709 8.02439 12.2828 0.130376 1008.64
358 1 18.4099 9.91423 12.0837 0.11249 870.259
359 1 16.1548 9.90866 14.3399 0.108649 840.545
360 1 18.356 7.66421 14.2062 0.08424 651.71
361 1 20.1676 12.0064 12.4106 0.0586233 453.53
362 1 2.34801 14.1788 12.0346 0.25286 1956.22
363 1 20.242 14.0719 13.571 0.160497 1241.66
364 1 2.58515 12.4591 14.0896 0.0980214 758.327
365 1 4.18955 12.141 12.1732 0.11963 925.496
366 1 6.13632 14.2972 12.4945 0.174127 1347.11
367 1 4.32887 14.2605 14.4103 0.171177 1324.28
368 1 5.90752 12.089 14.3611 0.125028 967.257
369 1 7.93965 12.272 12.4503 0.0819866 634.276
370 1 9.99816 14.2816 12.2452 0.153005 1183.7
371 1 8.01782 14.2934 14.1356 0.0835271 646.194
372 1 10.2303 12.395 14.2902 0.0273469 211.565
373 1 12.2447 12.0821 12.5441 0.19929 1541.78
374 1 13.9777 13.9007 12.2545 0.216518 1675.06
375 1 12.5459 13.9794 14.3932 0.279323 2160.94
376 1 14.4385 11.8889 14.2698 0.160574 1242.26
377 1 16.4405 11.6756 12.0184 0.359593 2781.94
378 1 18.0167 13.9666 12.2613 0.0684995 529.936
379 1 16.0132 13.9272 14.1898 0.0212243 164.198
380 1 18.4621 12.1774 14.3222 0.467277 3615.01
381 1 0.258303 16.0536 12.0684 0.250992 1941.76
382 1 1.84266 18.2925 11.7692 0.116531 901.526
383 1 0.206401 18.3804 14.0847 0.321656 2488.44
384 1 1.85567 16.3579 14.2156 0.457032 3535.76
385 1 4.00922 16.066 12.304 0.20053 1551.37
386 1 6.12306 18.7094 12.6323 0.0309656 239.561
387 1 3.92468 18.5548 14.2242 0.0837112 647.618
388 1 6.0725 16.4393 14.1791 0.371935 2877.42
389 1 8.05136 16.4323 12.0993 0.11681 903.682
390 1 10.0041 18.2613 11.8492 0.392938 3039.91
391 1 8.37732 17.9653 14.1401 0.213243 1649.72
392 1 10.2021 16.1747 14.0687 0.105953 819.686
393 1 12.1732 15.904 12.2764 0.0214069 165.611
394 1 14.0142 18.2429 12.3346 0.0532196 411.725
395 1 12.4014 18.3613 14.3422 0.0150174 116.18
396 1 14.1982 16.3037 14.225 0.084548 654.092
397 1 16.2971 16.1457 12.3907 0.0646874 500.444
398 1 18.7325 18.1188 12.2886 0.0928771 718.529
399 1 16.1787 18.5441 13.9242 0.359775 2783.34
400 1 18.6293 16.126 14.1229 0.348664 2697.39
401 1 0.180488 0.0531072 15.9967 0.0414375 320.575
402 1 2.12135 1.8072 16.1427 0.0812867 628.862
403 1 0.142159 1.86067 18.5086 0.0734502 568.236
404 1 2.31815 20.2239 18.4898 0.0833057 644.482
405 1 4.49755 19.9924 16.2945 0.0676948 523.711
406 1 6.13987 1.91964 16.2458 0.196014 1516.43
407 1 4.42682 2.00977 18.3638 0.129666 1003.14
408 1 6.09492 0.028282 18.2753 0.266114 2058.75
409 1 8.24713 0.0164771 16.2376 0.130282 1007.91
410 1 10.3958 2.16812 16.3782 0.124993 966.988
411 1 8.13388 2.04141 18.0913 0.0709219 548.676
412 1 10.1817 0.281409 17.9903 0.0259908 201.073
413 1 12.1862 0.119802 16.2121 0.0705136 545.518
414 1 14.4416 1.81459 16.0354 0.0576613 446.088
415 1 12.3413 2.03067 18.2772 0.114914 889.012
416 1 14.6155 20.1387 18.1613 0.118808 919.143
417 1 16.691 20.108 16.1896 0.0630079 487.451
418 1 18.2685 1.61162 16.1389 0.576012 4456.23
419 1 16.2497 1.8465 18.2553 0.17515 1355.02
420 1 18.446 20.1979 18.5262 0.152887 1182.79
421 1 20.0225 3.77932 16.4953 0.342352 2648.55
422 1 2.25544 5.7053 16.4062 0.319803 2474.1
423 1 0.366294 5.77381 18.3322 0.0350883 271.455
424 1 2.20121 3.77714 18.4387 0.123348 954.262
425 1 4.13667 3.93173 16.234 0.112094 867.195
426 1 6.06709 6.04654 16.3698 0.0850973 658.342
427 1 3.95559 5.7548 18.525 0.0949019 734.194
428 1 6.44992 4.05934 18.2027 0.416261 3220.34
429 1 8.43977 4.17181 16.1716 0.0173075 133.896
430 1 10.232 5.77 16.6828 0.0203607 157.517
431 1 8.26092 6.04435 18.2615 0.158857 1228.98
432 1 10.1601 3.78038 18.3767 0.194115 1501.74
433 1 12.3884 3.84973 16.112 0.042933 332.144
434 1 14.084 6.0267 16.1723 0.381328 2950.08
435 1 12.2682 6.15132 18.5113 0.02153 166.563
436 1 14.4425 3.96367 18.1863 0.093547 723.712
437 1 16.4564 3.60495 16.1248 0.0388799 300.789
438 1 18.4037 5.85778 16.3051 0.239048 1849.35
439 1 16.3809 6.54298 18.0822 0.253478 1960.99
440 1 17.9943 4.30448 18.2262 0.0167909 129.9
441 1 19.8572 8.01526 16.5013 0.331605 2565.41
442 1 1.86686 10.0404 16.1527 0.151884 1175.03
443 1 20.2836 10.0298 18.1397 0.0352869 272.992
444 1 2.12921 8.11851 18.564 0.0404448 312.895
445 1 4.02589 8.16915 16.5829 0.18078 1398.58
446 1 6.06087 10.1343 16.2096 0.0964786 746.392
447 1 4.00728 10.3502 18.0148 0.330305 2555.35
448 1 6.06736 8.06193 18.0929 0.381173 2948.88
449 1 8.00332 8.20143 16.1406 0.0516435 399.532
450 1 10.3647 9.68562 16.1286 0.0499754 386.627
451 1 8.32108 10.0628 18.2747 0.250249 1936.01
452 1 10.2985 8.41672 18.269 0.301195 2330.15
453 1 12.0709 7.82428 16.4293 0.117505 909.06
454 1 14.1553 9.99464 16.2646 0.0120117 92.9269
455 1 12.4724 10.25 18.7777 0.122061 944.308
456 1 14.1685 8.20325 18.3006 0.452261 3498.85
457 1 16.1026 8.07458 16.0666 0.0235619 182.283
458 1 18.1517 10.2752 16.1582 0.047758 369.472
459 1 15.9613 10.0333 18.0126 0.148502 1148.86
460 1 18.1899 8.19424 18.4221 0.091511 707.961
461 1 0.0734959 12.2703 16.0536 0.182137 1409.08
462 1 1.78253 14.2209 15.96 0.244688 1892.99
463 1 20.1008 14.5915 18.2452 0.520974 4030.43
464 1 1.71705 11.96 18.2417 0.126197 976.305
465 1 4.0105 12.323 16.2466 0.151366 1171.02
466 1 5.9327 14.4384 16.3691 0.36464 2820.98
467 1 3.66024 14.0622 18.032 0.138446 1071.07
468 1 6.00409 12.2122 18.032 0.181549 1404.53
469 1 8.08861 12.1557 16.3425 0.0620961 480.397
470 1 10.2859 14.2962 16.3234 0.00740322 57.2739
471 1 8.19538 14.1168 18.1949 0.017332 134.087
472 1 10.0955 12.504 18.4919 0.0919538 711.387
473 1 12.1311 12.0949 16.2874 0.161054 1245.97
474 1 14.4158 13.9386 16.0932 0.258396 1999.04
475 1 12.2898 14.3685 18.0376 0.100961 781.067
476 1 14.1453 12.0771 18.5132 0.0649859 502.753
477 1 16.4762 12.2849 16.1722 0.0602678 466.252
478 1 18.3443 14.2406 16.2454 0.0670665 518.849
479 1 16.2516 14.0315 18.3384 0.244209 1889.29
480 1 18.3672 12.1375 18.0784 0.162277 1255.43
481 1 0.00807218 16.8314 16.2377 0.106142 821.153
482 1 2.1716 18.5454 16.216 0.11233 869.026
483 1 0.241141 18.4959 18.4775 0.0614195 475.162
484 1 1.92446 16.2716 18.3594 0.199606 1544.22
485 1 3.89683 16.3426 16.1125 0.325033 2514.57
486 1 6.411 18.1475 16.0653 0.227073 1756.72
487 1 4.00908 17.9482 18.3094 0.0843526 652.581
488 1 5.97922 16.3395 18.0659 0.0465462 360.097
489 1 8.05986 16.3391 16.2078 0.23214 1795.91
490 1 10.4167 18.1065 16.2982 0.178575 1381.52
491 1 8.13624 18.1806 18.18 0.221851 1716.32
492 1 10.3107 16.0395 18.2303 0.27925 2160.37
493 1 12.43 16.3225 16.1523 0.234254 1812.27
494 1 14.6361 18.3668 16.3059 0.205534 1590.08
495 1 12.2357 18.4182 18.1633 0.0150474 116.412
496 1 14.414 16.1503 17.6821 0.102063 789.597
497 1 16.369 16.3199 16.1118 0.0255663 197.79
498 1 18.4548 18.5068 15.8358 0.169951 1314.8
499 1 16.6715 18.1848 18.0754 0.273288 2114.25
500 1 18.556 16.4164 18.0033 0.269941 2088.36
ITEM: TIMESTEP
100
ITEM: NUMBER OF ATOMS
500
ITEM: BOX BOUNDS pp pp pp
0.0000000000000000e+00 2.0300000000000001e+01
0.0000000000000000e+00 2.0300000000000001e+01
0.0000000000000000e+00 2.0300000000000001e+01
ITEM: ATOMS id type x y z c_keAtom v_T_atom
1 1 0.35041 -0.262827 19.9602 0.366775 2837.5
2 1 2.49433 2.09415 0.0545489 0.16897 1307.21
3 1 0.0615677 1.93683 1.94379 0.143766 1112.22
4 1 2.11983 20.4017 2.12462 0.0995339 770.029
5 1 4.13506 20.1905 20.2772 0.221725 1715.34
6 1 5.83683 2.24974 0.109999 0.0736079 569.456
7 1 4.07772 1.85254 2.05936 0.128391 993.28
8 1 6.03974 20.0083 1.99454 0.196506 1520.24
9 1 8.13242 0.228948 0.200075 0.081088 627.324
10 1 10.4028 2.01535 -0.116688 0.0554914 429.301
11 1 8.11722 2.0673 2.22673 0.0337879 261.395
12 1 10.4514 20.4128 2.07963 0.213266 1649.9
13 1 12.4905 19.9916 20.0565 0.136221 1053.86
14 1 14.1518 2.01972 19.9863 0.249933 1933.57
15 1 12.4603 1.79955 1.82126 0.262726 2032.54
16 1 14.0459 20.1016 1.9897 0.0622869 481.873
17 1 16.4886 0.139747 20.2538 0.169042 1307.77
18 1 18.6417 1.83278 20.3628 0.108562 839.874
19 1 15.6986 2.04027 1.84285 0.0239292 185.125
20 1 18.2478 -0.0397794 2.23224 0.0454213 351.395
21 1 0.158408 4.16559 20.4227 0.0775404 599.879
22 1 2.14104 6.37727 -0.0419664 0.0923125 714.162
23 1 19.9179 6.24615 2.20609 0.0886818 686.073
24 1 2.13964 4.04535 1.8887 0.0133948 103.627
25 1 3.97686 4.37845 20.6391 0.0961977 744.219
26 1 6.48908 5.93764 20.5341 0.631665 4886.78
27 1 4.22583 6.41915 2.2341 0.142338 1101.17
28 1 6.03306 4.34488 2.24141 0.0296525 229.402
29 1 8.36058 3.69727 20.0994 0.118188 914.342
30 1 10.4659 5.70524 20.244 0.0775475 599.934
31 1 8.45748 5.69845 1.87623 0.042262 326.953
32 1 10.6184 3.77537 1.98405 0.160265 1239.86
33 1 12.519 3.80511 20.5009 0.162127 1254.27
34 1 14.2942 6.07662 0.0666372 0.07799 603.358
35 1 12.3043 6.07058 2.18952 0.107291 830.037
36 1 14.0383 3.75364 2.46711 0.326312 2524.46
37 1 16.2439 3.86742 20.2563 0.0835704 646.529
38 1 17.997 6.15345 20.099 0.0991334 766.93
39 1 16.3906 6.05116 2.06237 0.129177 999.357
40 1 18.3477 3.80182 2.01105 0.129382 1000.95
41 1 20.2152 7.8612 0.0258345 0.0445279 344.483
42 1 1.86686 9.95544 20.4298 0.190171 1471.23
43 1 20.2058 10.36 2.0045 0.0933902 722.499
44 1 2.21053 8.18799 2.11492 0.0757423 585.968
45 1 4.20572 8.19237 -0.0968563 0.184458 1427.03
46 1 6.20486 10.0633 20.5913 0.202817 1569.06
47 1 3.98387 10.337 2.11315 0.160344 1240.48
48 1 6.17531 8.05695 1.95015 0.0173203 133.996
49 1 8.45077 7.9045 0.140148 0.294484 2278.23
50 1 10.1835 10.3076 0.182852 0.175552 1358.13
51 1 8.25742 9.88355 2.18187 0.190897 1476.85
52 1 10.4267 7.67469 1.96651 0.195864 1515.27
53 1 12.2358 8.05659 0.2178 0.0226794 175.456
54 1 13.955 9.90749 -0.344948 0.130122 1006.67
55 1 12.2283 10.2628 2.36081 0.0773115 598.109
56 1 14.2646 8.30589 1.99479 0.0853728 660.474
57 1 15.914 8.03228 19.9577 0.0489604 378.775
58 1 18.2289 10.351 0.482383 0.0930118 719.572
59 1 16.0621 10.3543 2.22372 0.253918 1964.4
60 1 18.1232 8.00648 2.23963 0.411048 3180.01
61 1 20.321 12.4595 20.233 0.254191 1966.51
62 1 1.97396 14.5293 20.1322 0.00939934 72.7165
63 1 -0.237874 14.3438 2.34907 0.0154473 119.506
64 1 1.69795 12.1643 1.90481 0.0935472 723.714
65 1 3.96445 12.1909 20.3702 0.23135 1789.8
66 1 6.08976 14.1677 0.0976881 0.154178 1192.77
67 1 4.09481 14.2336 2.08927 0.0682785 528.226
68 1 5.89073 11.912 2.05947 0.093916 726.566
69 1 8.10359 12.2513 0.0284314 0.0804588 622.457
70 1 10.0238 13.9942 20.188 0.175964 1361.32
71 1 8.1388 14.0129 1.91095 0.103225 798.584
72 1 9.9238 12.147 2.14524 0.0488029 377.556
73 1 12.3254 11.9506 -0.229901 0.0841908 651.329
74 1 14.4375 14.7463 0.0536105 0.0663057 512.963
75 1 12.1124 13.9645 2.00971 0.109998 850.981
76 1 14.4757 12.3323 2.10832 0.0442636 342.439
77 1 16.1714 12.4887 0.069109 0.290827 2249.94
78 1 18.5385 14.3837 19.7588 0.14982 1159.06
79 1 16.5213 14.1957 1.98174 0.0670205 518.494
80 1 18.607 12.3984 1.81793 0.102239 790.96
81 1 0.0421137 16.5833 19.8474 0.288312 2230.48
82 1 2.24226 18.1137 0.28491 0.0407073 314.926
83 1 0.223574 18.1161 2.24589 0.109795 849.413
84 1 1.93023 15.9346 2.02068 0.0717282 554.914
85 1 4.19355 16.3069 20.1496 0.0270876 209.559
86 1 6.6875 18.3778 0.0319434 0.0223087 172.587
87 1 3.93961 18.0426 2.54304 0.393831 3046.81
88 1 6.01846 16.1339 1.83043 0.0438664 339.365
89 1 8.00311 16.1353 -0.101848 0.14732 1139.72
90 1 10.3966 18.1918 -0.186953 0.0473743 366.504
91 1 8.45749 18.3163 2.21224 0.167833 1298.41
92 1 10.4915 15.8258 2.05561 0.335366 2594.51
93 1 12.0307 15.9664 20.3223 0.0270914 209.588
94 1 14.2576 18.1154 20.1997 0.0907339 701.949
95 1 12.2224 18.1453 1.87817 0.142092 1099.27
96 1 14.2242 16.4887 2.25859 0.0615712 476.336
97 1 16.5233 16.3162 0.221976 0.115986 897.307
98 1 18.3519 18.5583 0.0337527 0.263616 2039.42
99 1 15.9132 18.3983 2.14166 0.0881799 682.19
100 1 18.4063 16.2637 2.0925 0.0241554 186.874
101 1 -0.0102534 20.3742 3.99577 0.0492513 381.025
102 1 2.31582 2.04692 3.98711 0.109716 848.802
103 1 20.5897 1.78534 5.99565 0.323506 2502.75
104 1 2.05801 20.1734 6.22439 0.247883 1917.71
105 1 3.76259 -0.329298 4.20811 0.0213015 164.796
106 1 5.70106 1.93047 4.08412 0.113129 875.207
107 1 4.07528 1.98479 6.25547 0.146614 1134.25
108 1 6.30046 20.4381 6.21612 0.113596 878.82
109 1 8.15819 20.1946 4.29402 0.0801875 620.358
110 1 10.1087 2.03205 4.00767 0.0659031 509.849
111 1 7.87584 2.15198 6.30952 0.108185 836.955
112 1 9.82375 20.2875 6.10133 0.141428 1094.13
113 1 11.866 20.4311 4.19375 0.0118356 91.5647
114 1 14.0718 1.68674 4.2748 0.0204248 158.013
115 1 11.934 1.94181 6.29901 0.293939 2274.01
116 1 14.3136 -0.145856 5.98042 0.242492 1876
117 1 16.1055 0.0145014 3.97132 0.233593 1807.16
118 1 18.4138 1.81397 3.8738 0.0805214 622.941
119 1 16.2438 1.95073 6.26516 0.282982 2189.25
120 1 18.2907 20.3592 5.89847 0.0428753 331.698
121 1 0.0239101 3.56559 3.96422 0.0646485 500.143
122 1 1.82632 5.70705 3.76842 0.144105 1114.85
123 1 20.3194 6.09241 5.92269 0.247757 1916.74
124 1 2.29209 3.91415 5.83824 0.279035 2158.71
125 1 3.99671 4.15245 4.05096 0.118654 917.949
126 1 5.84488 5.90947 4.49766 0.205868 1592.66
127 1 3.57797 6.17184 5.85636 0.279285 2160.64
128 1 6.02452 3.98158 6.21361 0.0771898 597.167
129 1 7.957 3.75816 4.13723 0.234762 1816.2
130 1 10.0834 5.56887 4.08906 0.154927 1198.57